# vtk DataFile Version 2.0
geometrically linear steady-state plane stress analysis
ASCII

DATASET UNSTRUCTURED_GRID
POINTS 4063 double
  0.000000  5.000000  0.000000
  0.025170  4.999940  0.000000
  0.000000  4.974030  0.000000
  0.031040  4.972680  0.000000
  0.050350  4.999750  0.000000
  0.000000  4.946470  0.000000
  0.059020  4.976890  0.000000
  0.075520  4.999430  0.000000
  0.050570  4.939530  0.000000
  0.000000  4.917280  0.000000
  0.087640  4.973070  0.000000
  0.100690  4.998990  0.000000
  0.032070  4.901840  0.000000
  0.000000  4.886400  0.000000
  0.112560  4.976290  0.000000
  0.125850  4.998420  0.000000
  0.111030  4.940090  0.000000
  0.028810  4.873400  0.000000
  0.076210  4.888440  0.000000
  0.137710  4.971930  0.000000
  0.000000  4.853770  0.000000
  0.151020  4.997720  0.000000
  0.163550  4.974870  0.000000
  0.035760  4.836550  0.000000
  0.176170  4.996900  0.000000
  0.165090  4.937500  0.000000
  0.000000  4.819340  0.000000
  0.147400  4.893840  0.000000
  0.118600  4.853000  0.000000
  0.187770  4.970300  0.000000
  0.079960  4.821230  0.000000
  0.031080  4.804820  0.000000
  0.201330  4.995940  0.000000
  0.000000  4.783050  0.000000
  0.215390  4.972080  0.000000
  0.197020  4.888900  0.000000
  0.168380  4.848600  0.000000
  0.226480  4.994870  0.000000
  0.223170  4.939890  0.000000
  0.235900  4.973480  0.000000
  0.039660  4.763950  0.000000
  0.134000  4.794190  0.000000
  0.251620  4.993660  0.000000
  0.000000  4.744860  0.000000
  0.084860  4.756400  0.000000
  0.262810  4.966890  0.000000
  0.217740  4.845930  0.000000
  0.246230  4.886670  0.000000
  0.190720  4.804030  0.000000
  0.276760  4.992330  0.000000
  0.041670  4.724800  0.000000
  0.272200  4.928750  0.000000
  0.287810  4.965510  0.000000
  0.168380  4.757620  0.000000
  0.000000  4.704740  0.000000
  0.128090  4.728250  0.000000
  0.301890  4.990880  0.000000
  0.085750  4.705970  0.000000
  0.267340  4.842630  0.000000
  0.239660  4.801070  0.000000
  0.314450  4.967530  0.000000
  0.295420  4.883940  0.000000
  0.043300  4.683690  0.000000
  0.212580  4.759330  0.000000
  0.317730  4.929620  0.000000
  0.327020  4.989290  0.000000
  0.000000  4.662650  0.000000
  0.337800  4.962360  0.000000
  0.179230  4.709720  0.000000
  0.127090  4.678790  0.000000
  0.352130  4.987580  0.000000
  0.289540  4.797840  0.000000
  0.084640  4.656480  0.000000
  0.317170  4.839120  0.000000
  0.262450  4.756630  0.000000
  0.043300  4.640610  0.000000
  0.344590  4.880720  0.000000
  0.365020  4.963930  0.000000
  0.235170  4.714740  0.000000
  0.377240  4.985750  0.000000
  0.000000  4.618570  0.000000
  0.378230  4.931920  0.000000
  0.169700  4.652690  0.000000
  0.385500  4.961800  0.000000
  0.213580  4.676640  0.000000
  0.125130  4.627720  0.000000
  0.339430  4.795320  0.000000
  0.312170  4.753450  0.000000
  0.079500  4.608120  0.000000
  0.367040  4.836090  0.000000
  0.402330  4.983790  0.000000
  0.033220  4.597640  0.000000
  0.284540  4.711830  0.000000
  0.412710  4.956690  0.000000
  0.000000  4.572480  0.000000
  0.427420  4.981700  0.000000
  0.212380  4.626650  0.000000
  0.165280  4.597960  0.000000
  0.254550  4.646800  0.000000
  0.417580  4.875370  0.000000
  0.119400  4.578130  0.000000
  0.439590  4.959630  0.000000
  0.053160  4.557040  0.000000
  0.444910  4.924900  0.000000
  0.363470  4.730440  0.000000
  0.452490  4.979480  0.000000
  0.395210  4.773250  0.000000
  0.460390  4.955410  0.000000
  0.335340  4.678640  0.000000
  0.437800  4.830200  0.000000
  0.304030  4.639730  0.000000
  0.000000  4.524390  0.000000
  0.193560  4.564220  0.000000
  0.477560  4.977140  0.000000
  0.273210  4.600430  0.000000
  0.467330  4.870500  0.000000
  0.487520  4.949890  0.000000
  0.097340  4.518230  0.000000
  0.042640  4.500270  0.000000
  0.162470  4.525080  0.000000
  0.502610  4.974670  0.000000
  0.383790  4.671460  0.000000
  0.414880  4.710550  0.000000
  0.243410  4.556490  0.000000
  0.353190  4.631990  0.000000
  0.503710  4.914600  0.000000
  0.446200  4.749490  0.000000
  0.511770  4.951200  0.000000
  0.487480  4.824940  0.000000
  0.322680  4.593590  0.000000
  0.477040  4.788920  0.000000
  0.000000  4.474390  0.000000
  0.211870  4.517710  0.000000
  0.527650  4.972080  0.000000
  0.291550  4.554480  0.000000
  0.131260  4.483600  0.000000
  0.084990  4.473890  0.000000
  0.516340  4.865540  0.000000
  0.537340  4.944730  0.000000
  0.433000  4.664010  0.000000
  0.402700  4.625430  0.000000
  0.464290  4.703230  0.000000
  0.043300  4.450390  0.000000
  0.180970  4.478690  0.000000
  0.552670  4.969360  0.000000
  0.261170  4.509760  0.000000
  0.372050  4.586020  0.000000
  0.495290  4.742420  0.000000
  0.562230  4.941960  0.000000
  0.537210  4.820160  0.000000
  0.559410  4.910050  0.000000
  0.340990  4.547120  0.000000
  0.526410  4.781320  0.000000
  0.000000  4.426390  0.000000
  0.229490  4.471160  0.000000
  0.577690  4.966520  0.000000
  0.159700  4.443720  0.000000
  0.112730  4.430720  0.000000
  0.310420  4.508300  0.000000
  0.587100  4.939070  0.000000
  0.451790  4.617690  0.000000
  0.482500  4.657080  0.000000
  0.421540  4.579440  0.000000
  0.513750  4.696090  0.000000
  0.033220  4.401300  0.000000
  0.201650  4.434160  0.000000
  0.279290  4.466880  0.000000
  0.390320  4.540440  0.000000
  0.602680  4.963540  0.000000
  0.544570  4.734770  0.000000
  0.589110  4.857630  0.000000
  0.079480  4.390920  0.000000
  0.359850  4.500870  0.000000
  0.614780  4.938630  0.000000
  0.575780  4.773640  0.000000
  0.000000  4.380400  0.000000
  0.165250  4.401180  0.000000
  0.250730  4.425910  0.000000
  0.620050  4.906840  0.000000
  0.627670  4.960450  0.000000
  0.328750  4.461800  0.000000
  0.501280  4.611000  0.000000
  0.606970  4.812700  0.000000
  0.470730  4.571440  0.000000
  0.531920  4.649570  0.000000
  0.635270  4.936620  0.000000
  0.125130  4.371370  0.000000
  0.439730  4.533050  0.000000
  0.043300  4.358410  0.000000
  0.563090  4.688370  0.000000
  0.408340  4.494170  0.000000
  0.219810  4.387820  0.000000
  0.300500  4.421910  0.000000
  0.593910  4.727690  0.000000
  0.652630  4.957220  0.000000
  0.638650  4.851010  0.000000
  0.084680  4.342560  0.000000
  0.000000  4.336410  0.000000
  0.378170  4.454630  0.000000
  0.661630  4.929640  0.000000
  0.625210  4.766220  0.000000
  0.268680  4.383400  0.000000
  0.187590  4.350330  0.000000
  0.519350  4.564400  0.000000
  0.550660  4.603280  0.000000
  0.677580  4.953880  0.000000
  0.347240  4.415360  0.000000
  0.488930  4.524920  0.000000
  0.581220  4.642780  0.000000
  0.675580  4.893950  0.000000
  0.656140  4.805410  0.000000
  0.043300  4.315420  0.000000
  0.457720  4.486540  0.000000
  0.685710  4.930120  0.000000
  0.612760  4.681480  0.000000
  0.127000  4.320290  0.000000
  0.237240  4.344580  0.000000
  0.427780  4.448960  0.000000
  0.643110  4.721100  0.000000
  0.317780  4.375040  0.000000
  0.702510  4.950400  0.000000
  0.687460  4.844330  0.000000
  0.000000  4.294420  0.000000
  0.396020  4.410640  0.000000
  0.085700  4.293080  0.000000
  0.711230  4.922730  0.000000
  0.674570  4.759750  0.000000
  0.568720  4.556980  0.000000
  0.538400  4.518890  0.000000
  0.598970  4.596410  0.000000
  0.286600  4.336930  0.000000
  0.170790  4.296450  0.000000
  0.506830  4.480550  0.000000
  0.207500  4.304490  0.000000
  0.041570  4.274410  0.000000
  0.630540  4.635100  0.000000
  0.727430  4.946800  0.000000
  0.367450  4.369900  0.000000
  0.723980  4.886510  0.000000
  0.705530  4.797910  0.000000
  0.477040  4.440560  0.000000
  0.660920  4.674410  0.000000
  0.735150  4.922890  0.000000
  0.128010  4.270840  0.000000
  0.445250  4.402140  0.000000
  0.000000  4.254400  0.000000
  0.257130  4.299050  0.000000
  0.335560  4.331680  0.000000
  0.692440  4.713100  0.000000
  0.083810  4.252650  0.000000
  0.736200  4.837160  0.000000
  0.752320  4.943080  0.000000
  0.413400  4.363800  0.000000
  0.618200  4.550340  0.000000
  0.587710  4.510740  0.000000
  0.723890  4.751750  0.000000
  0.760760  4.915320  0.000000
  0.039560  4.235350  0.000000
  0.556080  4.472150  0.000000
  0.648300  4.588630  0.000000
  0.524310  4.433750  0.000000
  0.306460  4.291250  0.000000
  0.678960  4.627800  0.000000
  0.225580  4.256700  0.000000
  0.168220  4.241360  0.000000
  0.767290  4.876230  0.000000
  0.384730  4.323920  0.000000
  0.777200  4.939230  0.000000
  0.494490  4.394300  0.000000
  0.754990  4.790870  0.000000
  0.000000  4.216310  0.000000
  0.710240  4.666780  0.000000
  0.122390  4.221710  0.000000
  0.785500  4.911420  0.000000
  0.462620  4.355910  0.000000
  0.352520  4.285920  0.000000
  0.275220  4.252500  0.000000
  0.741730  4.705770  0.000000
  0.784870  4.829500  0.000000
  0.802060  4.935250  0.000000
  0.031010  4.194590  0.000000
  0.635550  4.503760  0.000000
  0.431160  4.317100  0.000000
  0.666430  4.542710  0.000000
  0.605370  4.464400  0.000000
  0.197520  4.215380  0.000000
  0.072130  4.192930  0.000000
  0.573540  4.425980  0.000000
  0.697720  4.581520  0.000000
  0.773330  4.744440  0.000000
  0.812200  4.910760  0.000000
  0.542170  4.387090  0.000000
  0.000000  4.180120  0.000000
  0.324510  4.245570  0.000000
  0.728390  4.620240  0.000000
  0.811650  4.872710  0.000000
  0.162370  4.191730  0.000000
  0.247350  4.211890  0.000000
  0.401650  4.277670  0.000000
  0.511860  4.347880  0.000000
  0.826890  4.931150  0.000000
  0.759600  4.659090  0.000000
  0.804180  4.783700  0.000000
  0.116400  4.172070  0.000000
  0.035660  4.162950  0.000000
  0.834910  4.903270  0.000000
  0.480270  4.309160  0.000000
  0.296580  4.210720  0.000000
  0.374090  4.241050  0.000000
  0.791050  4.697940  0.000000
  0.653210  4.457140  0.000000
  0.684350  4.496070  0.000000
  0.833460  4.821360  0.000000
  0.622790  4.417960  0.000000
  0.715760  4.534790  0.000000
  0.000000  4.145780  0.000000
  0.851710  4.926930  0.000000
  0.451070  4.271440  0.000000
[...]
CELL_DATA 7508
TENSORS strain double
  -0.000279  0.000005  0.000000
  0.000005  0.000000  0.000000
  0.000000  0.000000  0.000000

  -0.000234  0.000101  0.000000
  0.000101  -0.000042  0.000000
  0.000000  0.000000  0.000000

  -0.000100  0.000105  0.000000
  0.000105  -0.000109  0.000000
  0.000000  0.000000  0.000000

  -0.000013  0.000036  0.000000
  0.000036  -0.000093  0.000000
  0.000000  0.000000  0.000000

  -0.000282  0.000059  0.000000
  0.000059  -0.000010  0.000000
  0.000000  0.000000  0.000000

  -0.000167  0.000116  0.000000
  0.000116  -0.000081  0.000000
  0.000000  0.000000  0.000000

  -0.000045  0.000073  0.000000
  0.000073  -0.000114  0.000000
  0.000000  0.000000  0.000000

  -0.000002  0.000008  0.000000
  0.000008  -0.000046  0.000000
  0.000000  0.000000  0.000000

  -0.000297  0.000032  0.000000
  0.000032  -0.000002  0.000000
  0.000000  0.000000  0.000000

  -0.000202  0.000112  0.000000
  0.000112  -0.000062  0.000000
  0.000000  0.000000  0.000000

  -0.000070  0.000090  0.000000
  0.000090  -0.000114  0.000000
  0.000000  0.000000  0.000000

  -0.000005  0.000020  0.000000
  0.000020  -0.000072  0.000000
  0.000000  0.000000  0.000000

  -0.000259  0.000081  0.000000
  0.000081  -0.000025  0.000000
  0.000000  0.000000  0.000000

  -0.000134  0.000113  0.000000
  0.000113  -0.000096  0.000000
  0.000000  0.000000  0.000000

  -0.000027  0.000055  0.000000
  0.000055  -0.000106  0.000000
  0.000000  0.000000  0.000000

  0.000000  0.000002  0.000000
  0.000002  -0.000020  0.000000
  0.000000  0.000000  0.000000

  -0.000301  0.000016  0.000000
  0.000016  0.000001  0.000000
  0.000000  0.000000  0.000000

  -0.000219  0.000106  0.000000
  0.000106  -0.000051  0.000000
  0.000000  0.000000  0.000000

  -0.000084  0.000098  0.000000
  0.000098  -0.000111  0.000000
  0.000000  0.000000  0.000000

  -0.000009  0.000028  0.000000
  0.000028  -0.000082  0.000000
  0.000000  0.000000  0.000000

  -0.000273  0.000071  0.000000
  0.000071  -0.000018  0.000000
  0.000000  0.000000  0.000000

  -0.000151  0.000116  0.000000
  0.000116  -0.000088  0.000000
  0.000000  0.000000  0.000000

  -0.000036  0.000064  0.000000
  0.000064  -0.000111  0.000000
  0.000000  0.000000  0.000000

  -0.000001  0.000005  0.000000
  0.000005  -0.000032  0.000000
  0.000000  0.000000  0.000000

  -0.000292  0.000045  0.000000
  0.000045  -0.000007  0.000000
  0.000000  0.000000  0.000000

  -0.000184  0.000115  0.000000
  0.000115  -0.000072  0.000000
  0.000000  0.000000  0.000000

  -0.000058  0.000082  0.000000
  0.000082  -0.000114  0.000000
  0.000000  0.000000  0.000000

  -0.000003  0.000014  0.000000
  0.000014  -0.000059  0.000000
  0.000000  0.000000  0.000000

  -0.000248  0.000092  0.000000
  0.000092  -0.000033  0.000000
  0.000000  0.000000  0.000000

  -0.000116  0.000109  0.000000
  0.000109  -0.000102  0.000000
  0.000000  0.000000  0.000000

  -0.000020  0.000045  0.000000
  0.000045  -0.000100  0.000000
  0.000000  0.000000  0.000000

  0.000002  0.000002  0.000000
  0.000002  -0.000010  0.000000
  0.000000  0.000000  0.000000

  -0.000299  0.000009  0.000000
  0.000009  0.000000  0.000000
  0.000000  0.000000  0.000000

  -0.000226  0.000105  0.000000
  0.000105  -0.000047  0.000000
  0.000000  0.000000  0.000000

  -0.000093  0.000101  0.000000
  0.000101  -0.000110  0.000000
  0.000000  0.000000  0.000000

  -0.000011  0.000031  0.000000
  0.000031  -0.000088  0.000000
  0.000000  0.000000  0.000000

  -0.000277  0.000064  0.000000
  0.000064  -0.000015  0.000000
  0.000000  0.000000  0.000000

  -0.000157  0.000115  0.000000
  0.000115  -0.000083  0.000000
  0.000000  0.000000  0.000000

  -0.000041  0.000068  0.000000
  0.000068  -0.000112  0.000000
  0.000000  0.000000  0.000000

  -0.000001  0.000006  0.000000
  0.000006  -0.000039  0.000000
  0.000000  0.000000  0.000000

  -0.000295  0.000039  0.000000
  0.000039  -0.000004  0.000000
  0.000000  0.000000  0.000000

  -0.000193  0.000114  0.000000
  0.000114  -0.000065  0.000000
  0.000000  0.000000  0.000000

  -0.000063  0.000087  0.000000
  0.000087  -0.000115  0.000000
  0.000000  0.000000  0.000000

  -0.000004  0.000017  0.000000
  0.000017  -0.000066  0.000000
  0.000000  0.000000  0.000000

  -0.000255  0.000087  0.000000
  0.000087  -0.000029  0.000000
  0.000000  0.000000  0.000000

  -0.000123  0.000111  0.000000
  0.000111  -0.000097  0.000000
  0.000000  0.000000  0.000000

  -0.000024  0.000050  0.000000
  0.000050  -0.000104  0.000000
  0.000000  0.000000  0.000000

  0.000000  0.000001  0.000000
  0.000001  -0.000016  0.000000
  0.000000  0.000000  0.000000

  -0.000301  0.000024  0.000000
  0.000024  0.000000  0.000000
  0.000000  0.000000  0.000000

  -0.000208  0.000109  0.000000
  0.000109  -0.000055  0.000000
  0.000000  0.000000  0.000000

  -0.000077  0.000094  0.000000
  0.000094  -0.000113  0.000000
  0.000000  0.000000  0.000000

  -0.000007  0.000024  0.000000
  0.000024  -0.000077  0.000000
  0.000000  0.000000  0.000000

  -0.000269  0.000077  0.000000
  0.000077  -0.000021  0.000000
  0.000000  0.000000  0.000000

  -0.000140  0.000113  0.000000
  0.000113  -0.000091  0.000000
  0.000000  0.000000  0.000000

  -0.000031  0.000059  0.000000
  0.000059  -0.000109  0.000000
  0.000000  0.000000  0.000000

  -0.000000  0.000003  0.000000
  0.000003  -0.000026  0.000000
  0.000000  0.000000  0.000000

  -0.000289  0.000052  0.000000
  0.000052  -0.000008  0.000000
  0.000000  0.000000  0.000000

  -0.000176  0.000116  0.000000
  0.000116  -0.000076  0.000000
  0.000000  0.000000  0.000000

  -0.000051  0.000077  0.000000
  0.000077  -0.000114  0.000000
  0.000000  0.000000  0.000000

  -0.000002  0.000011  0.000000
  0.000011  -0.000053  0.000000
  0.000000  0.000000  0.000000

  -0.000242  0.000096  0.000000
  0.000096  -0.000037  0.000000
  0.000000  0.000000  0.000000

  -0.000107  0.000107  0.000000
  0.000107  -0.000105  0.000000
  0.000000  0.000000  0.000000

  -0.000017  0.000040  0.000000
  0.000040  -0.000096  0.000000
  0.000000  0.000000  0.000000

  -0.000294  0.000005  0.000000
  0.000005  0.000001  0.000000
  0.000000  0.000000  0.000000

  -0.000230  0.000102  0.000000
  0.000102  -0.000045  0.000000
  0.000000  0.000000  0.000000

  -0.000097  0.000103  0.000000
  0.000103  -0.000109  0.000000
  0.000000  0.000000  0.000000

  -0.000012  0.000034  0.000000
  0.000034  -0.000090  0.000000
  0.000000  0.000000  0.000000

  -0.000281  0.000062  0.000000
  0.000062  -0.000011  0.000000
  0.000000  0.000000  0.000000

  -0.000163  0.000116  0.000000
  0.000116  -0.000082  0.000000
  0.000000  0.000000  0.000000

  -0.000043  0.000071  0.000000
  0.000071  -0.000113  0.000000
  0.000000  0.000000  0.000000

  -0.000001  0.000007  0.000000
  0.000007  -0.000043  0.000000
  0.000000  0.000000  0.000000

  -0.000297  0.000035  0.000000
  0.000035  -0.000002  0.000000
  0.000000  0.000000  0.000000

  -0.000198  0.000112  0.000000
  0.000112  -0.000062  0.000000
  0.000000  0.000000  0.000000

  -0.000067  0.000088  0.000000
  0.000088  -0.000115  0.000000
  0.000000  0.000000  0.000000

  -0.000005  0.000019  0.000000
  0.000019  -0.000069  0.000000
  0.000000  0.000000  0.000000

  -0.000258  0.000085  0.000000
  0.000085  -0.000025  0.000000
  0.000000  0.000000  0.000000

  -0.000129  0.000112  0.000000
  0.000112  -0.000099  0.000000
  0.000000  0.000000  0.000000

  -0.000025  0.000052  0.000000
  0.000052  -0.000105  0.000000
  0.000000  0.000000  0.000000

  0.000000  0.000001  0.000000
  0.000001  -0.000017  0.000000
  0.000000  0.000000  0.000000

  -0.000301  0.000020  0.000000
  0.000020  0.000001  0.000000
  0.000000  0.000000  0.000000

  -0.000214  0.000107  0.000000
  0.000107  -0.000054  0.000000
  0.000000  0.000000  0.000000

  -0.000080  0.000096  0.000000
  0.000096  -0.000112  0.000000
  0.000000  0.000000  0.000000

  -0.000008  0.000026  0.000000
  0.000026  -0.000080  0.000000
  0.000000  0.000000  0.000000

  -0.000271  0.000074  0.000000
  0.000074  -0.000018  0.000000
  0.000000  0.000000  0.000000

  -0.000145  0.000115  0.000000
  0.000115  -0.000091  0.000000
  0.000000  0.000000  0.000000

  -0.000033  0.000061  0.000000
  0.000061  -0.000110  0.000000
  0.000000  0.000000  0.000000

  -0.000000  0.000004  0.000000
  0.000004  -0.000029  0.000000
  0.000000  0.000000  0.000000

  -0.000290  0.000048  0.000000
  0.000048  -0.000008  0.000000
  0.000000  0.000000  0.000000

  -0.000180  0.000115  0.000000
  0.000115  -0.000074  0.000000
  0.000000  0.000000  0.000000

  -0.000055  0.000080  0.000000
  0.000080  -0.000115  0.000000
  0.000000  0.000000  0.000000

  -0.000002  0.000013  0.000000
  0.000013  -0.000056  0.000000
  0.000000  0.000000  0.000000

  -0.000245  0.000094  0.000000
  0.000094  -0.000035  0.000000
  0.000000  0.000000  0.000000

  -0.000112  0.000108  0.000000
  0.000108  -0.000103  0.000000
  0.000000  0.000000  0.000000

  -0.000018  0.000042  0.000000
  0.000042  -0.000098  0.000000
  0.000000  0.000000  0.000000

  -0.000300  0.000012  0.000000
  0.000012  -0.000001  0.000000
  0.000000  0.000000  0.000000

  -0.000223  0.000106  0.000000
  0.000106  -0.000050  0.000000
  0.000000  0.000000  0.000000

  -0.000088  0.000099  0.000000
  0.000099  -0.000111  0.000000
  0.000000  0.000000  0.000000

  -0.000010  0.000029  0.000000
  0.000029  -0.000085  0.000000
  0.000000  0.000000  0.000000

  -0.000275  0.000068  0.000000
  0.000068  -0.000016  0.000000
  0.000000  0.000000  0.000000

  -0.000155  0.000116  0.000000
  0.000116  -0.000085  0.000000
  0.000000  0.000000  0.000000

  -0.000039  0.000066  0.000000
  0.000066  -0.000112  0.000000
  0.000000  0.000000  0.000000

  -0.000001  0.000006  0.000000
  0.000006  -0.000036  0.000000
  0.000000  0.000000  0.000000

  -0.000293  0.000041  0.000000
  0.000041  -0.000004  0.000000
  0.000000  0.000000  0.000000

  -0.000189  0.000114  0.000000
  0.000114  -0.000069  0.000000
  0.000000  0.000000  0.000000

  -0.000061  0.000084  0.000000
  0.000084  -0.000115  0.000000
  0.000000  0.000000  0.000000

  -0.000004  0.000015  0.000000
  0.000015  -0.000063  0.000000
  0.000000  0.000000  0.000000

  -0.000251  0.000090  0.000000
  0.000090  -0.000032  0.000000
  0.000000  0.000000  0.000000

  -0.000122  0.000110  0.000000
  0.000110  -0.000100  0.000000
  0.000000  0.000000  0.000000

  -0.000022  0.000047  0.000000
  0.000047  -0.000102  0.000000
  0.000000  0.000000  0.000000

  0.000001  0.000001  0.000000
  0.000001  -0.000014  0.000000
  0.000000  0.000000  0.000000

  -0.000299  0.000027  0.000000
  0.000027  -0.000000  0.000000
  0.000000  0.000000  0.000000

  -0.000205  0.000112  0.000000
  0.000112  -0.000058  0.000000
  0.000000  0.000000  0.000000

  -0.000074  0.000092  0.000000
  0.000092  -0.000112  0.000000
  0.000000  0.000000  0.000000

  -0.000006  0.000022  0.000000
  0.000022  -0.000075  0.000000
  0.000000  0.000000  0.000000

  -0.000265  0.000080  0.000000
  0.000080  -0.000024  0.000000
  0.000000  0.000000  0.000000

  -0.000138  0.000115  0.000000
  0.000115  -0.000094  0.000000
  0.000000  0.000000  0.000000

  -0.000030  0.000057  0.000000
  0.000057  -0.000109  0.000000
  0.000000  0.000000  0.000000

  -0.000000  0.000003  0.000000
  0.000003  -0.000023  0.000000
  0.000000  0.000000  0.000000

  -0.000285  0.000055  0.000000
  0.000055  -0.000009  0.000000
  0.000000  0.000000  0.000000

  -0.000171  0.000116  0.000000
  0.000116  -0.000078  0.000000
  0.000000  0.000000  0.000000

  -0.000049  0.000075  0.000000
  0.000075  -0.000114  0.000000
  0.000000  0.000000  0.000000

  -0.000002  0.000010  0.000000
  0.000010  -0.000050  0.000000
  0.000000  0.000000  0.000000

  -0.000237  0.000097  0.000000
  0.000097  -0.000040  0.000000
  0.000000  0.000000  0.000000

  -0.000104  0.000106  0.000000
  0.000106  -0.000106  0.000000
  0.000000  0.000000  0.000000

  -0.000015  0.000038  0.000000
  0.000038  -0.000095  0.000000
  0.000000  0.000000  0.000000

  -0.000288  0.000004  0.000000
  0.000004  0.000002  0.000000
  0.000000  0.000000  0.000000

  -0.000233  0.000101  0.000000
  0.000101  -0.000042  0.000000
  0.000000  0.000000  0.000000

  -0.000097  0.000103  0.000000
  0.000103  -0.000107  0.000000
  0.000000  0.000000  0.000000

  -0.000013  0.000035  0.000000
  0.000035  -0.000091  0.000000
  0.000000  0.000000  0.000000

  -0.000282  0.000061  0.000000
  0.000061  -0.000013  0.000000
  0.000000  0.000000  0.000000

  -0.000165  0.000117  0.000000
  0.000117  -0.000080  0.000000
  0.000000  0.000000  0.000000

  -0.000045  0.000072  0.000000
  0.000072  -0.000114  0.000000
  0.000000  0.000000  0.000000

  -0.000001  0.000008  0.000000
  0.000008  -0.000045  0.000000
  0.000000  0.000000  0.000000

  -0.000298  0.000033  0.000000
  0.000033  -0.000004  0.000000
  0.000000  0.000000  0.000000

  -0.000200  0.000112  0.000000
  0.000112  -0.000062  0.000000
  0.000000  0.000000  0.000000

  -0.000069  0.000090  0.000000
  0.000090  -0.000114  0.000000
  0.000000  0.000000  0.000000

  -0.000005  0.000020  0.000000
  0.000020  -0.000071  0.000000
  0.000000  0.000000  0.000000

  -0.000259  0.000084  0.000000
  0.000084  -0.000027  0.000000
  0.000000  0.000000  0.000000

  -0.000131  0.000113  0.000000
  0.000113  -0.000096  0.000000
  0.000000  0.000000  0.000000

  -0.000026  0.000053  0.000000
  0.000053  -0.000106  0.000000
  0.000000  0.000000  0.000000

  -0.000000  0.000002  0.000000
  0.000002  -0.000019  0.000000
  0.000000  0.000000  0.000000

  -0.000301  0.000019  0.000000
  0.000019  -0.000002  0.000000
  0.000000  0.000000  0.000000

  -0.000215  0.000107  0.000000
  0.000107  -0.000052  0.000000
  0.000000  0.000000  0.000000

  -0.000084  0.000096  0.000000
  0.000096  -0.000112  0.000000
  0.000000  0.000000  0.000000

  -0.000009  0.000027  0.000000
  0.000027  -0.000082  0.000000
  0.000000  0.000000  0.000000

  -0.000272  0.000074  0.000000
  0.000074  -0.000020  0.000000
  0.000000  0.000000  0.000000

  -0.000148  0.000115  0.000000
  0.000115  -0.000088  0.000000
  0.000000  0.000000  0.000000

  -0.000035  0.000062  0.000000
  0.000062  -0.000111  0.000000
  0.000000  0.000000  0.000000

  -0.000000  0.000004  0.000000
  0.000004  -0.000031  0.000000
  0.000000  0.000000  0.000000

  -0.000290  0.000047  0.000000
  0.000047  -0.000006  0.000000
  0.000000  0.000000  0.000000

  -0.000182  0.000115  0.000000
  0.000115  -0.000070  0.000000
  0.000000  0.000000  0.000000

  -0.000056  0.000082  0.000000
  0.000082  -0.000115  0.000000
  0.000000  0.000000  0.000000

  -0.000003  0.000013  0.000000
  0.000013  -0.000058  0.000000
  0.000000  0.000000  0.000000

  -0.000247  0.000093  0.000000
  0.000093  -0.000035  0.000000
  0.000000  0.000000  0.000000

  -0.000113  0.000109  0.000000
  0.000109  -0.000102  0.000000
  0.000000  0.000000  0.000000

  -0.000019  0.000043  0.000000
  0.000043  -0.000099  0.000000
  0.000000  0.000000  0.000000

  0.000005  0.000005  0.000000
  0.000005  -0.000005  0.000000
  0.000000  0.000000  0.000000

  -0.000299  0.000011  0.000000
  0.000011  0.000001  0.000000
  0.000000  0.000000  0.000000

  -0.000224  0.000105  0.000000
  0.000105  -0.000048  0.000000
  0.000000  0.000000  0.000000

  -0.000090  0.000100  0.000000
  0.000100  -0.000109  0.000000
  0.000000  0.000000  0.000000

  -0.000010  0.000031  0.000000
  0.000031  -0.000086  0.000000
  0.000000  0.000000  0.000000

  -0.000274  0.000066  0.000000
  0.000066  -0.000016  0.000000
  0.000000  0.000000  0.000000

  -0.000156  0.000116  0.000000
  0.000116  -0.000085  0.000000
  0.000000  0.000000  0.000000

  -0.000039  0.000067  0.000000
  0.000067  -0.000112  0.000000
  0.000000  0.000000  0.000000

  -0.000001  0.000006  0.000000
  0.000006  -0.000038  0.000000
  0.000000  0.000000  0.000000

  -0.000296  0.000041  0.000000
  0.000041  -0.000005  0.000000
  0.000000  0.000000  0.000000

  -0.000192  0.000114  0.000000
  0.000114  -0.000066  0.000000
  0.000000  0.000000  0.000000

  -0.000063  0.000085  0.000000
  0.000085  -0.000114  0.000000
  0.000000  0.000000  0.000000

  -0.000004  0.000016  0.000000
  0.000016  -0.000065  0.000000
  0.000000  0.000000  0.000000

  -0.000252  0.000088  0.000000
  0.000088  -0.000030  0.000000
  0.000000  0.000000  0.000000

  -0.000124  0.000111  0.000000
  0.000111  -0.000099  0.000000
  0.000000  0.000000  0.000000

  -0.000022  0.000048  0.000000
  0.000048  -0.000103  0.000000
  0.000000  0.000000  0.000000

  0.000000  0.000001  0.000000
  0.000001  -0.000015  0.000000
  0.000000  0.000000  0.000000

  -0.000300  0.000026  0.000000
  0.000026  -0.000002  0.000000
  0.000000  0.000000  0.000000

  -0.000208  0.000109  0.000000
  0.000109  -0.000058  0.000000
  0.000000  0.000000  0.000000

  -0.000076  0.000094  0.000000
  0.000094  -0.000114  0.000000
  0.000000  0.000000  0.000000

  -0.000007  0.000023  0.000000
  0.000023  -0.000076  0.000000
  0.000000  0.000000  0.000000

  -0.000266  0.000078  0.000000
  0.000078  -0.000022  0.000000
  0.000000  0.000000  0.000000

  -0.000140  0.000116  0.000000
  0.000116  -0.000094  0.000000
  0.000000  0.000000  0.000000

  -0.000030  0.000058  0.000000
  0.000058  -0.000109  0.000000
  0.000000  0.000000  0.000000

  -0.000000  0.000003  0.000000
  0.000003  -0.000024  0.000000
  0.000000  0.000000  0.000000

  -0.000288  0.000054  0.000000
  0.000054  -0.000010  0.000000
  0.000000  0.000000  0.000000

  -0.000174  0.000116  0.000000
  0.000116  -0.000075  0.000000
  0.000000  0.000000  0.000000

  -0.000051  0.000077  0.000000
  0.000077  -0.000115  0.000000
  0.000000  0.000000  0.000000

  -0.000002  0.000010  0.000000
  0.000010  -0.000051  0.000000
  0.000000  0.000000  0.000000

  -0.000238  0.000096  0.000000
  0.000096  -0.000038  0.000000
  0.000000  0.000000  0.000000

  -0.000106  0.000106  0.000000
  0.000106  -0.000106  0.000000
  0.000000  0.000000  0.000000

  -0.000015  0.000039  0.000000
  0.000039  -0.000096  0.000000
  0.000000  0.000000  0.000000

  -0.000296  0.000008  0.000000
  0.000008  0.000002  0.000000
  0.000000  0.000000  0.000000

  -0.000228  0.000102  0.000000
  0.000102  -0.000046  0.000000
  0.000000  0.000000  0.000000

  -0.000095  0.000103  0.000000
  0.000103  -0.000109  0.000000
  0.000000  0.000000  0.000000

  -0.000012  0.000033  0.000000
  0.000033  -0.000088  0.000000
  0.000000  0.000000  0.000000

  -0.000279  0.000063  0.000000
  0.000063  -0.000014  0.000000
  0.000000  0.000000  0.000000

  -0.000160  0.000116  0.000000
  0.000116  -0.000082  0.000000
  0.000000  0.000000  0.000000

  -0.000042  0.000069  0.000000
  0.000069  -0.000113  0.000000
  0.000000  0.000000  0.000000

  -0.000001  0.000007  0.000000
  0.000007  -0.000041  0.000000
  0.000000  0.000000  0.000000

  -0.000296  0.000037  0.000000
  0.000037  -0.000005  0.000000
  0.000000  0.000000  0.000000

  -0.000197  0.000113  0.000000
  0.000113  -0.000064  0.000000
  0.000000  0.000000  0.000000

  -0.000066  0.000087  0.000000
  0.000087  -0.000115  0.000000
  0.000000  0.000000  0.000000

  -0.000005  0.000018  0.000000
  0.000018  -0.000068  0.000000
  0.000000  0.000000  0.000000

  -0.000257  0.000086  0.000000
  0.000086  -0.000028  0.000000
  0.000000  0.000000  0.000000

  -0.000126  0.000113  0.000000
  0.000113  -0.000099  0.000000
  0.000000  0.000000  0.000000

  -0.000024  0.000051  0.000000
  0.000051  -0.000104  0.000000
  0.000000  0.000000  0.000000

  -0.000000  0.000001  0.000000
  0.000001  -0.000016  0.000000
  0.000000  0.000000  0.000000

  -0.000301  0.000023  0.000000
  0.000023  -0.000002  0.000000
  0.000000  0.000000  0.000000

  -0.000211  0.000108  0.000000
  0.000108  -0.000055  0.000000
  0.000000  0.000000  0.000000

  -0.000080  0.000095  0.000000
  0.000095  -0.000112  0.000000
  0.000000  0.000000  0.000000

  -0.000008  0.000025  0.000000
  0.000025  -0.000079  0.000000
  0.000000  0.000000  0.000000
